 Gaussian 16, Revision C.01,
 Gaussian 16:  ES64L-G16RevC.01  3-Jul-2019

 -------------------------------------------
 #p wb97xd/def2SVP scf(xqc) scfcyc=999 force
 -------------------------------------------

 -------------
 Template file
 -------------
 Symbolic Z-matrix:
 Charge =  0 Multiplicity = 2

                         Standard orientation:
 ---------------------------------------------------------------------
 Center     Atomic      Atomic             Coordinates (Angstroms)
 Number     Number       Type             X           Y           Z
 ---------------------------------------------------------------------
      1         47           0       -0.241751    2.394316   -0.000030
      2         47           0        2.203088    0.969177    0.000014
      3         47           0       -2.351207    0.510712    0.000025
      4         47           0        1.602093   -1.795122   -0.000006
      5         47           0       -1.212645   -2.078424   -0.000009
      6         47           0        0.000209   -0.000324   -1.545832
      7         47           0        0.000213   -0.000335    1.545837
 ---------------------------------------------------------------------

 SCF Done:  E(UwB97XD) =  -1029.17506595     A.U. after   18 cycles

 The electronic state is 2-A.
 Alpha  occ. eigenvalues --   -3.84531  -3.84527  -3.84254  -3.84246  -3.84245
 Alpha  occ. eigenvalues --   -3.84230  -3.84229  -2.42810  -2.42768  -2.42768
 Alpha  occ. eigenvalues --   -2.42689  -2.42689  -2.42654  -2.42538  -2.42537
 Alpha  occ. eigenvalues --   -2.42512  -2.42489  -2.42489  -2.42425  -2.42425
 Alpha  occ. eigenvalues --   -2.42318  -2.42308  -2.42307  -2.42301  -2.42301
 Alpha  occ. eigenvalues --   -2.42296  -2.42296  -2.42237  -0.47049  -0.46289
 Alpha  occ. eigenvalues --   -0.46288  -0.45500  -0.45495  -0.44693  -0.44666
 Alpha  occ. eigenvalues --   -0.44664  -0.44397  -0.44394  -0.44266  -0.43182
 Alpha  occ. eigenvalues --   -0.43176  -0.42388  -0.42384  -0.41865  -0.41862
 Alpha  occ. eigenvalues --   -0.41499  -0.40781  -0.40779  -0.40598  -0.40597
 Alpha  occ. eigenvalues --   -0.40482  -0.40480  -0.39820  -0.39645  -0.39417
 Alpha  occ. eigenvalues --   -0.39415  -0.39279  -0.39278  -0.38925  -0.38728
 Alpha  occ. eigenvalues --   -0.38726  -0.38649  -0.38427  -0.38424  -0.25325
 Alpha  occ. eigenvalues --   -0.25323  -0.21088
 Alpha virt. eigenvalues --   -0.03161  -0.03158  -0.02369   0.01337   0.01339
 Alpha virt. eigenvalues --    0.01904   0.05372   0.05373   0.06360   0.06362
 Alpha virt. eigenvalues --    0.09632   0.10711   0.11265   0.11267   0.13347

  Beta  occ. eigenvalues --   -3.84376  -3.84370  -3.84211  -3.84204  -3.84203
  Beta  occ. eigenvalues --   -3.84189  -3.84187  -2.42707  -2.42678  -2.42677
  Beta  occ. eigenvalues --   -2.42572  -2.42571  -2.42525  -2.42516  -2.42515
  Beta  occ. eigenvalues --   -2.42429  -2.42413  -2.42413  -2.42381  -2.42381
  Beta  occ. eigenvalues --   -2.42282  -2.42282  -2.42242  -2.42240  -2.42239
  Beta  occ. eigenvalues --   -2.42230  -2.42223  -2.42223  -0.46758  -0.46182
  Beta  occ. eigenvalues --   -0.46181  -0.45437  -0.45433  -0.44545  -0.44543
  Beta  occ. eigenvalues --   -0.44481  -0.44228  -0.44225  -0.44222  -0.43165
  Beta  occ. eigenvalues --   -0.43160  -0.42296  -0.42292  -0.41784  -0.41781
  Beta  occ. eigenvalues --   -0.41279  -0.40706  -0.40704  -0.40584  -0.40583
  Beta  occ. eigenvalues --   -0.40452  -0.40451  -0.39647  -0.39453  -0.39328
  Beta  occ. eigenvalues --   -0.39327  -0.39054  -0.39054  -0.38627  -0.38529
  Beta  occ. eigenvalues --   -0.38527  -0.38388  -0.38385  -0.37739  -0.25076
  Beta  occ. eigenvalues --   -0.25073
  Beta virt. eigenvalues --   -0.06141  -0.03216  -0.03213  -0.02142   0.02116
  Beta virt. eigenvalues --    0.02118   0.03458   0.05483   0.05485   0.06294
  Beta virt. eigenvalues --    0.06295   0.09897   0.11027   0.11029   0.11425

 Mulliken charges and spin densities:
               1          2
     1  Ag   0.038408   0.044188
     2  Ag   0.038375   0.044090
     3  Ag   0.038699   0.044163
     4  Ag   0.038785   0.044295
     5  Ag   0.038137   0.044219
     6  Ag  -0.096201   0.389521
     7  Ag  -0.096204   0.389524
 Sum of Mulliken charges =  -0.00000   1.00000

 Dipole moment (field-independent basis, Debye):
    X=              0.0011    Y=              0.0001    Z=              0.0000  Tot=              0.0011
 Quadrupole moment (field-independent basis, Debye-Ang):
   XX=           -131.2611   YY=           -131.2636   ZZ=           -142.3594
   XY=              0.0034   XZ=             -0.0000   YZ=              0.0000

 Optimization completed.
    -- Stationary point found.

 1\1\GINC-NE04\Force\UwB97XD\def2SVP\Ag7(2)\NPATSALIDIS\24-Feb-2025\0\\
 #p wb97xd/def2SVP scf(xqc) scfcyc=999 force\\Template file\\0,2\Ag,-0.
 215838,-2.396791,-0.00003\Ag,-2.346714,-0.534634,0.000014\Ag,2.212028,
 -0.946538,0.000025\Ag,-1.233332,2.065928,-0.000006\Ag,1.584146,1.81130
 8,-0.000009\Ag,-0.000144,0.000358,-1.545832\Ag,-0.000146,0.000369,1.54
 5837\\Version=ES64L-G16RevC.01\State=2-A\HF=-1029.175066\S2=0.754774\S
 2-1=0.\S2A=0.750008\RMSD=2.398e-09\RMSF=5.964e-05\Dipole=-0.0004364,0.
 0000467,0.0000018\Quadrupole=2.7519548,2.7483276,-5.5002824,0.002036,0

 Normal termination of Gaussian 16 at Mon Feb 24 13:29:22 2025.
