 Gaussian 16, Revision C.01,
 Gaussian 16:  ES64L-G16RevC.01  3-Jul-2019

 -------------------------------------------
 #p wb97xd/def2SVP scf(xqc) scfcyc=999 force
 -------------------------------------------

 -------------
 Template file
 -------------
 Symbolic Z-matrix:
 Charge =  0 Multiplicity = 2

                         Standard orientation:
 ---------------------------------------------------------------------
 Center     Atomic      Atomic             Coordinates (Angstroms)
 Number     Number       Type             X           Y           Z
 ---------------------------------------------------------------------
      1         47           0       -0.449612   -2.279939   -0.383208
      2         47           0        2.069693   -1.421027    0.595476
      3         47           0        2.082095    1.401607    0.602092
      4         47           0        0.836323    0.000922   -1.557089
      5         47           0       -0.306851   -0.000822    1.311884
      6         47           0       -0.429121    2.287819   -0.372252
      7         47           0       -1.961067    0.012488   -1.054638
      8          6           0       -3.932421   -0.002247    1.832619
      9          8           0       -3.377320   -0.008449    2.848640
     10          8           0       -4.491941    0.003980    0.816079
 ---------------------------------------------------------------------

 SCF Done:  E(UwB97XD) =  -1217.56280709     A.U. after   23 cycles

 The electronic state is 2-A.
 Alpha  occ. eigenvalues --  -19.34767 -19.34700 -10.50026  -3.84568  -3.84429
 Alpha  occ. eigenvalues --   -3.84314  -3.84207  -3.84206  -3.84172  -3.84159
 Alpha  occ. eigenvalues --   -2.42791  -2.42776  -2.42767  -2.42653  -2.42631
 Alpha  occ. eigenvalues --   -2.42607  -2.42541  -2.42519  -2.42470  -2.42439
 Alpha  occ. eigenvalues --   -2.42437  -2.42394  -2.42388  -2.42388  -2.42288
 Alpha  occ. eigenvalues --   -2.42276  -2.42263  -2.42255  -2.42232  -2.42230
 Alpha  occ. eigenvalues --   -2.42186  -1.26215  -1.22081  -0.65370  -0.62070
 Alpha  occ. eigenvalues --   -0.61858  -0.61507  -0.47062  -0.46795  -0.46460
 Alpha  occ. eigenvalues --   -0.46245  -0.46195  -0.45483  -0.45451  -0.44659
 Alpha  occ. eigenvalues --   -0.44654  -0.44619  -0.44359  -0.44344  -0.44230
 Alpha  occ. eigenvalues --   -0.43164  -0.43132  -0.42362  -0.42356  -0.41857
 Alpha  occ. eigenvalues --   -0.41802  -0.41476  -0.40763  -0.40749  -0.40603
 Alpha  occ. eigenvalues --   -0.40543  -0.40452  -0.40433  -0.39751  -0.39622
 Alpha  occ. eigenvalues --   -0.39407  -0.39358  -0.39225  -0.39222  -0.38902
 Alpha  occ. eigenvalues --   -0.38699  -0.38674  -0.38615  -0.38395  -0.38372
 Alpha  occ. eigenvalues --   -0.25296  -0.25285  -0.20996
 Alpha virt. eigenvalues --   -0.03164  -0.02974  -0.02176   0.01322   0.01369
 Alpha virt. eigenvalues --    0.02296   0.05389   0.05548   0.06387   0.06551
 Alpha virt. eigenvalues --    0.09754   0.10356   0.10587   0.11443   0.11585

  Beta  occ. eigenvalues --  -19.34762 -19.34680 -10.50024  -3.84408  -3.84277
  Beta  occ. eigenvalues --   -3.84263  -3.84166  -3.84164  -3.84131  -3.84118
  Beta  occ. eigenvalues --   -2.42688  -2.42669  -2.42664  -2.42547  -2.42536
  Beta  occ. eigenvalues --   -2.42513  -2.42485  -2.42467  -2.42397  -2.42365
  Beta  occ. eigenvalues --   -2.42360  -2.42351  -2.42335  -2.42312  -2.42263
  Beta  occ. eigenvalues --   -2.42235  -2.42203  -2.42193  -2.42178  -2.42160
  Beta  occ. eigenvalues --   -2.42159  -1.26191  -1.22054  -0.65358  -0.62033
  Beta  occ. eigenvalues --   -0.61852  -0.61494  -0.46866  -0.46650  -0.46446
  Beta  occ. eigenvalues --   -0.46135  -0.46093  -0.45420  -0.45388  -0.44537
  Beta  occ. eigenvalues --   -0.44498  -0.44445  -0.44193  -0.44183  -0.44170
  Beta  occ. eigenvalues --   -0.43146  -0.43115  -0.42270  -0.42265  -0.41775
  Beta  occ. eigenvalues --   -0.41720  -0.41252  -0.40688  -0.40676  -0.40582
  Beta  occ. eigenvalues --   -0.40528  -0.40422  -0.40402  -0.39624  -0.39377
  Beta  occ. eigenvalues --   -0.39312  -0.39268  -0.39001  -0.38999  -0.38595
  Beta  occ. eigenvalues --   -0.38511  -0.38472  -0.38344  -0.38332  -0.37710
  Beta  occ. eigenvalues --   -0.25042  -0.25024
  Beta virt. eigenvalues --   -0.06053  -0.03223  -0.03014  -0.01974   0.02086
  Beta virt. eigenvalues --    0.02196   0.03719   0.05497   0.05651   0.06320
  Beta virt. eigenvalues --    0.06499   0.09990   0.10451   0.10498   0.11261

 Mulliken charges and spin densities:
               1          2
     1  Ag  -0.022307   0.041883
     2  Ag   0.085771   0.042431
     3  Ag   0.086518   0.042344
     4  Ag  -0.053561   0.400853
     5  Ag  -0.184749   0.378733
     6  Ag  -0.021327   0.041904
     7  Ag   0.038925   0.046965
     8  C    0.376466   0.002059
     9  O   -0.144353   0.002805
    10  O   -0.161382   0.000022
 Sum of Mulliken charges =  -0.00000   1.00000

 Dipole moment (field-independent basis, Debye):
    X=             -0.3973    Y=             -0.0003    Z=              0.2240  Tot=              0.4561
 Quadrupole moment (field-independent basis, Debye-Ang):
   XX=           -146.7751   YY=           -146.2245   ZZ=           -158.2998
   XY=              0.0086   XZ=              1.0219   YZ=              0.0226

 Normal termination of Gaussian 16 at Mon Feb 24 14:33:12 2025.
